VARIABLES = X Y Z
ZONE N =4, E =2, DATAPACKING = POINT, ZONETYPE = FETRIANGLE
-1.11022e-16  0.8  5
0  5  5
-1.11022e-16  0.8  0
0  5  0
1  3  4
1  4  2
VARIABLES = X Y Z
ZONE N =11, E =9, DATAPACKING = POINT, ZONETYPE = FETRIANGLE
-1.11022e-16  0.8  5
0  5  5
0.0200577  0.621983  5
0.0792249  0.452893  5
0.174535  0.301208  5
0.301208  0.174535  5
0.452893  0.0792249  5
0.621983  0.0200577  5
0.8  -1.11022e-16  5
4.2  0  5
4.2  5  5
9  6  7
9  7  8
1  3  4
1  4  5
1  5  6
1  6  9
10  1  9
11  2  1
11  1  10
VARIABLES = X Y Z
ZONE N =16, E =14, DATAPACKING = POINT, ZONETYPE = FETRIANGLE
-1.11022e-16  0.8  0
0.0200577  0.621983  0
0.0792249  0.452893  0
0.174535  0.301208  0
0.301208  0.174535  0
0.452893  0.0792249  0
0.621983  0.0200577  0
0.8  -1.11022e-16  0
0.8  -1.11022e-16  5
-1.11022e-16  0.8  5
0.0200577  0.621983  5
0.0792249  0.452893  5
0.174535  0.301208  5
0.301208  0.174535  5
0.452893  0.0792249  5
0.621983  0.0200577  5
11  1  2
11  10  1
12  2  3
12  3  4
12  11  2
13  12  4
14  4  5
14  13  4
15  5  6
15  6  7
15  14  5
16  15  7
9  7  8
9  16  7
VARIABLES = X Y Z
ZONE N =18, E =16, DATAPACKING = POINT, ZONETYPE = FETRIANGLE
0  5  0
4.2  5  -1.11022e-16
0  5  5
4.2  5  5
5  5  4.2
4.97994  5  4.37802
4.92078  5  4.54711
4.82547  5  4.69879
4.69879  5  4.82547
4.54711  5  4.92078
4.37802  5  4.97994
5  5  0.8
4.97994  5  0.621983
4.92078  5  0.452893
4.82547  5  0.301208
4.69879  5  0.174535
4.54711  5  0.0792249
4.37802  5  0.0200577
16  17  18
16  18  2
13  14  15
12  15  16
12  16  2
12  13  15
4  2  1
4  1  3
5  2  4
5  12  2
9  6  5
9  7  6
9  11  10
9  4  11
9  5  4
8  7  9
VARIABLES = X Y Z
ZONE N =11, E =9, DATAPACKING = POINT, ZONETYPE = FETRIANGLE
-1.11022e-16  0.8  0
0  5  0
0.0200577  0.621983  0
0.0792249  0.452893  0
0.174535  0.301208  0
0.301208  0.174535  0
0.452893  0.0792249  0
0.621983  0.0200577  0
0.8  -1.11022e-16  0
4.2  0  -1.11022e-16
4.2  5  -1.11022e-16
9  6  7
9  7  8
1  3  4
1  4  5
1  5  6
1  6  9
10  1  9
11  2  1
11  1  10
VARIABLES = X Y Z
ZONE N =18, E =16, DATAPACKING = POINT, ZONETYPE = FETRIANGLE
0.8  -1.11022e-16  0
4.2  0  -1.11022e-16
0.8  -1.11022e-16  5
4.2  0  5
5  0  4.2
4.97994  0  4.37802
4.92078  0  4.54711
4.82547  0  4.69879
4.69879  0  4.82547
4.54711  0  4.92078
4.37802  0  4.97994
5  0  0.8
4.97994  0  0.621983
4.92078  0  0.452893
4.82547  0  0.301208
4.69879  0  0.174535
4.54711  0  0.0792249
4.37802  0  0.0200577
17  18  2
15  16  17
13  14  15
12  17  2
12  15  17
12  13  15
5  2  1
5  1  3
5  3  4
5  12  2
10  4  11
9  6  5
9  7  6
9  5  4
9  4  10
8  7  9
VARIABLES = X Y Z
ZONE N =16, E =14, DATAPACKING = POINT, ZONETYPE = FETRIANGLE
5  0  4.2
4.97994  0  4.37802
4.92078  0  4.54711
4.82547  0  4.69879
4.69879  0  4.82547
4.54711  0  4.92078
4.37802  0  4.97994
4.2  0  5
4.2  5  5
5  5  4.2
4.97994  5  4.37802
4.92078  5  4.54711
4.82547  5  4.69879
4.69879  5  4.82547
4.54711  5  4.92078
4.37802  5  4.97994
11  1  2
11  10  1
12  2  3
12  3  4
12  11  2
13  12  4
14  4  5
14  13  4
15  5  6
15  6  7
15  14  5
16  15  7
9  7  8
9  16  7
VARIABLES = X Y Z
ZONE N =16, E =14, DATAPACKING = POINT, ZONETYPE = FETRIANGLE
5  0  0.8
4.97994  0  0.621983
4.92078  0  0.452893
4.82547  0  0.301208
4.69879  0  0.174535
4.54711  0  0.0792249
4.37802  0  0.0200577
4.2  0  -1.11022e-16
4.2  5  -1.11022e-16
5  5  0.8
4.97994  5  0.621983
4.92078  5  0.452893
4.82547  5  0.301208
4.69879  5  0.174535
4.54711  5  0.0792249
4.37802  5  0.0200577
11  1  2
11  10  1
12  2  3
12  3  4
12  11  2
13  12  4
14  4  5
14  13  4
15  5  6
15  6  7
15  14  5
16  15  7
9  7  8
9  16  7
VARIABLES = X Y Z
ZONE N =4, E =2, DATAPACKING = POINT, ZONETYPE = FETRIANGLE
5  0  0.8
5  0  4.2
5  5  0.8
5  5  4.2
2  1  3
2  3  4
